
GAUSSIAN             29 MOL ORBITALS    306 PRIMITIVES       14 NUCLEI
  N    1    (CENTRE  1)   4.58089283 -2.60947788 -0.02525641  CHARGE =  7.0
  C    2    (CENTRE  2)   3.50479979 -0.71409074  0.11283235  CHARGE =  6.0
  C    3    (CENTRE  3)   2.25550186  1.70746295  0.31931838  CHARGE =  6.0
  O    4    (CENTRE  4)   0.44208490  2.32736239 -1.59437580  CHARGE =  8.0
  C    5    (CENTRE  5)  -0.47386123  1.94439893  0.90819040  CHARGE =  6.0
  C    6    (CENTRE  6)  -2.20142887 -0.25431951  1.32694560  CHARGE =  6.0
  C    7    (CENTRE  7)  -4.39819709 -0.57707506 -0.39592407  CHARGE =  6.0
  N    8    (CENTRE  8)  -2.27507338 -2.36927534 -0.44992388  CHARGE =  7.0
  H    9    (CENTRE  9)   3.51345659  3.25009092  0.83745864  CHARGE =  1.0
  H   10    (CENTRE 10)  -1.01488447  3.67873753  1.88574573  CHARGE =  1.0
  H   11    (CENTRE 11)  -2.39616400 -0.78327381  3.30462378  CHARGE =  1.0
  H   12    (CENTRE 12)  -6.16246935 -1.33104916  0.33127928  CHARGE =  1.0
  H   13    (CENTRE 13)  -4.58922011  0.75700224 -1.94572627  CHARGE =  1.0
  H   14    (CENTRE 14)  -1.14902079 -1.97739377 -1.96028865  CHARGE =  1.0
CENTRE ASSIGNMENTS    1  1  1  1  1  1  1  1  1  1  1  1  1  1  1  1  1  1  1  1
CENTRE ASSIGNMENTS    1  1  1  1  1  1  1  1  1  1  1  1  1  2  2  2  2  2  2  2
CENTRE ASSIGNMENTS    2  2  2  2  2  2  2  2  2  2  2  2  2  2  2  2  2  2  2  2
CENTRE ASSIGNMENTS    2  2  2  2  2  2  3  3  3  3  3  3  3  3  3  3  3  3  3  3
CENTRE ASSIGNMENTS    3  3  3  3  3  3  3  3  3  3  3  3  3  3  3  3  3  3  3  4
CENTRE ASSIGNMENTS    4  4  4  4  4  4  4  4  4  4  4  4  4  4  4  4  4  4  4  4
CENTRE ASSIGNMENTS    4  4  4  4  4  4  4  4  4  4  4  4  5  5  5  5  5  5  5  5
CENTRE ASSIGNMENTS    5  5  5  5  5  5  5  5  5  5  5  5  5  5  5  5  5  5  5  5
CENTRE ASSIGNMENTS    5  5  5  5  5  6  6  6  6  6  6  6  6  6  6  6  6  6  6  6
CENTRE ASSIGNMENTS    6  6  6  6  6  6  6  6  6  6  6  6  6  6  6  6  6  6  7  7
CENTRE ASSIGNMENTS    7  7  7  7  7  7  7  7  7  7  7  7  7  7  7  7  7  7  7  7
CENTRE ASSIGNMENTS    7  7  7  7  7  7  7  7  7  7  7  8  8  8  8  8  8  8  8  8
CENTRE ASSIGNMENTS    8  8  8  8  8  8  8  8  8  8  8  8  8  8  8  8  8  8  8  8
CENTRE ASSIGNMENTS    8  8  8  8  9  9  9  9  9  9  9 10 10 10 10 10 10 10 11 11
CENTRE ASSIGNMENTS   11 11 11 11 11 12 12 12 12 12 12 12 13 13 13 13 13 13 13 14
CENTRE ASSIGNMENTS   14 14 14 14 14 14
TYPE ASSIGNMENTS      1  1  1  1  1  1  1  1  1  1  1  1  1  1  1  2  2  2  3  3
TYPE ASSIGNMENTS      3  4  4  4  2  3  4  5  6  7  8  9 10  1  1  1  1  1  1  1
TYPE ASSIGNMENTS      1  1  1  1  1  1  1  1  2  2  2  3  3  3  4  4  4  2  3  4
TYPE ASSIGNMENTS      5  6  7  8  9 10  1  1  1  1  1  1  1  1  1  1  1  1  1  1
TYPE ASSIGNMENTS      1  2  2  2  3  3  3  4  4  4  2  3  4  5  6  7  8  9 10  1
TYPE ASSIGNMENTS      1  1  1  1  1  1  1  1  1  1  1  1  1  1  2  2  2  3  3  3
TYPE ASSIGNMENTS      4  4  4  2  3  4  5  6  7  8  9 10  1  1  1  1  1  1  1  1
TYPE ASSIGNMENTS      1  1  1  1  1  1  1  2  2  2  3  3  3  4  4  4  2  3  4  5
TYPE ASSIGNMENTS      6  7  8  9 10  1  1  1  1  1  1  1  1  1  1  1  1  1  1  1
TYPE ASSIGNMENTS      2  2  2  3  3  3  4  4  4  2  3  4  5  6  7  8  9 10  1  1
TYPE ASSIGNMENTS      1  1  1  1  1  1  1  1  1  1  1  1  1  2  2  2  3  3  3  4
TYPE ASSIGNMENTS      4  4  2  3  4  5  6  7  8  9 10  1  1  1  1  1  1  1  1  1
TYPE ASSIGNMENTS      1  1  1  1  1  1  2  2  2  3  3  3  4  4  4  2  3  4  5  6
TYPE ASSIGNMENTS      7  8  9 10  1  1  1  1  2  3  4  1  1  1  1  2  3  4  1  1
TYPE ASSIGNMENTS      1  1  2  3  4  1  1  1  1  2  3  4  1  1  1  1  2  3  4  1
TYPE ASSIGNMENTS      1  1  1  2  3  4
EXPONENTS  9.0460000e+03 1.3570000e+03 3.0930000e+02 8.7730000e+01 2.8560000e+01
EXPONENTS  1.0210000e+01 3.8380000e+00 9.0460000e+03 1.3570000e+03 8.7730000e+01
EXPONENTS  2.8560000e+01 1.0210000e+01 3.8380000e+00 7.4660000e-01 2.2480000e-01
EXPONENTS  1.3550000e+01 2.9170000e+00 7.9730000e-01 1.3550000e+01 2.9170000e+00
EXPONENTS  7.9730000e-01 1.3550000e+01 2.9170000e+00 7.9730000e-01 2.1850000e-01
EXPONENTS  2.1850000e-01 2.1850000e-01 8.1700000e-01 8.1700000e-01 8.1700000e-01
EXPONENTS  8.1700000e-01 8.1700000e-01 8.1700000e-01 6.6650000e+03 1.0000000e+03
EXPONENTS  2.2800000e+02 6.4710000e+01 2.1060000e+01 7.4950000e+00 2.7970000e+00
EXPONENTS  6.6650000e+03 1.0000000e+03 6.4710000e+01 2.1060000e+01 7.4950000e+00
EXPONENTS  2.7970000e+00 5.2150000e-01 1.5960000e-01 9.4390000e+00 2.0020000e+00
EXPONENTS  5.4560000e-01 9.4390000e+00 2.0020000e+00 5.4560000e-01 9.4390000e+00
EXPONENTS  2.0020000e+00 5.4560000e-01 1.5170000e-01 1.5170000e-01 1.5170000e-01
EXPONENTS  5.5000000e-01 5.5000000e-01 5.5000000e-01 5.5000000e-01 5.5000000e-01
EXPONENTS  5.5000000e-01 6.6650000e+03 1.0000000e+03 2.2800000e+02 6.4710000e+01
EXPONENTS  2.1060000e+01 7.4950000e+00 2.7970000e+00 6.6650000e+03 1.0000000e+03
EXPONENTS  6.4710000e+01 2.1060000e+01 7.4950000e+00 2.7970000e+00 5.2150000e-01
EXPONENTS  1.5960000e-01 9.4390000e+00 2.0020000e+00 5.4560000e-01 9.4390000e+00
EXPONENTS  2.0020000e+00 5.4560000e-01 9.4390000e+00 2.0020000e+00 5.4560000e-01
EXPONENTS  1.5170000e-01 1.5170000e-01 1.5170000e-01 5.5000000e-01 5.5000000e-01
EXPONENTS  5.5000000e-01 5.5000000e-01 5.5000000e-01 5.5000000e-01 1.1720000e+04
EXPONENTS  1.7590000e+03 4.0080000e+02 1.1370000e+02 3.7030000e+01 1.3270000e+01
EXPONENTS  5.0250000e+00 1.1720000e+04 1.7590000e+03 1.1370000e+02 3.7030000e+01
EXPONENTS  1.3270000e+01 5.0250000e+00 1.0130000e+00 3.0230000e-01 1.7700000e+01
EXPONENTS  3.8540000e+00 1.0460000e+00 1.7700000e+01 3.8540000e+00 1.0460000e+00
EXPONENTS  1.7700000e+01 3.8540000e+00 1.0460000e+00 2.7530000e-01 2.7530000e-01
EXPONENTS  2.7530000e-01 1.1850000e+00 1.1850000e+00 1.1850000e+00 1.1850000e+00
EXPONENTS  1.1850000e+00 1.1850000e+00 6.6650000e+03 1.0000000e+03 2.2800000e+02
EXPONENTS  6.4710000e+01 2.1060000e+01 7.4950000e+00 2.7970000e+00 6.6650000e+03
EXPONENTS  1.0000000e+03 6.4710000e+01 2.1060000e+01 7.4950000e+00 2.7970000e+00
EXPONENTS  5.2150000e-01 1.5960000e-01 9.4390000e+00 2.0020000e+00 5.4560000e-01
EXPONENTS  9.4390000e+00 2.0020000e+00 5.4560000e-01 9.4390000e+00 2.0020000e+00
EXPONENTS  5.4560000e-01 1.5170000e-01 1.5170000e-01 1.5170000e-01 5.5000000e-01
EXPONENTS  5.5000000e-01 5.5000000e-01 5.5000000e-01 5.5000000e-01 5.5000000e-01
EXPONENTS  6.6650000e+03 1.0000000e+03 2.2800000e+02 6.4710000e+01 2.1060000e+01
EXPONENTS  7.4950000e+00 2.7970000e+00 6.6650000e+03 1.0000000e+03 6.4710000e+01
EXPONENTS  2.1060000e+01 7.4950000e+00 2.7970000e+00 5.2150000e-01 1.5960000e-01
EXPONENTS  9.4390000e+00 2.0020000e+00 5.4560000e-01 9.4390000e+00 2.0020000e+00
EXPONENTS  5.4560000e-01 9.4390000e+00 2.0020000e+00 5.4560000e-01 1.5170000e-01
EXPONENTS  1.5170000e-01 1.5170000e-01 5.5000000e-01 5.5000000e-01 5.5000000e-01
EXPONENTS  5.5000000e-01 5.5000000e-01 5.5000000e-01 6.6650000e+03 1.0000000e+03
EXPONENTS  2.2800000e+02 6.4710000e+01 2.1060000e+01 7.4950000e+00 2.7970000e+00
EXPONENTS  6.6650000e+03 1.0000000e+03 6.4710000e+01 2.1060000e+01 7.4950000e+00
EXPONENTS  2.7970000e+00 5.2150000e-01 1.5960000e-01 9.4390000e+00 2.0020000e+00
EXPONENTS  5.4560000e-01 9.4390000e+00 2.0020000e+00 5.4560000e-01 9.4390000e+00
EXPONENTS  2.0020000e+00 5.4560000e-01 1.5170000e-01 1.5170000e-01 1.5170000e-01
EXPONENTS  5.5000000e-01 5.5000000e-01 5.5000000e-01 5.5000000e-01 5.5000000e-01
EXPONENTS  5.5000000e-01 9.0460000e+03 1.3570000e+03 3.0930000e+02 8.7730000e+01
EXPONENTS  2.8560000e+01 1.0210000e+01 3.8380000e+00 9.0460000e+03 1.3570000e+03
EXPONENTS  8.7730000e+01 2.8560000e+01 1.0210000e+01 3.8380000e+00 7.4660000e-01
EXPONENTS  2.2480000e-01 1.3550000e+01 2.9170000e+00 7.9730000e-01 1.3550000e+01
EXPONENTS  2.9170000e+00 7.9730000e-01 1.3550000e+01 2.9170000e+00 7.9730000e-01
EXPONENTS  2.1850000e-01 2.1850000e-01 2.1850000e-01 8.1700000e-01 8.1700000e-01
EXPONENTS  8.1700000e-01 8.1700000e-01 8.1700000e-01 8.1700000e-01 1.3010000e+01
EXPONENTS  1.9620000e+00 4.4460000e-01 1.2200000e-01 7.2700000e-01 7.2700000e-01
EXPONENTS  7.2700000e-01 1.3010000e+01 1.9620000e+00 4.4460000e-01 1.2200000e-01
EXPONENTS  7.2700000e-01 7.2700000e-01 7.2700000e-01 1.3010000e+01 1.9620000e+00
EXPONENTS  4.4460000e-01 1.2200000e-01 7.2700000e-01 7.2700000e-01 7.2700000e-01
EXPONENTS  1.3010000e+01 1.9620000e+00 4.4460000e-01 1.2200000e-01 7.2700000e-01
EXPONENTS  7.2700000e-01 7.2700000e-01 1.3010000e+01 1.9620000e+00 4.4460000e-01
EXPONENTS  1.2200000e-01 7.2700000e-01 7.2700000e-01 7.2700000e-01 1.3010000e+01
EXPONENTS  1.9620000e+00 4.4460000e-01 1.2200000e-01 7.2700000e-01 7.2700000e-01
EXPONENTS  7.2700000e-01
MO    1     MO 0.0        OCC NO =   2.00000000  ORB. ENERGY = -19.27639261
  6.94513665e-07  1.28899215e-06  2.16207578e-06  3.16623608e-06  3.68566318e-06
  2.75062826e-06  8.21086020e-07  9.75528333e-10 -1.39957204e-07 -1.19325795e-06
 -1.69418067e-06 -7.20975287e-06 -3.51818297e-06  9.33212178e-06  7.54909717e-05
  5.67682048e-05  4.52866042e-05  2.10315040e-05  2.03561275e-04  1.62390178e-04
  7.54154513e-05  8.29486946e-05  6.61719833e-05  3.07308609e-05 -5.95682611e-05
  3.72339217e-05 -5.24597392e-05 -4.87494710e-05  9.74392065e-05 -4.86897355e-05
 -2.59400032e-05  2.37653751e-06 -6.04664911e-05  6.33226983e-06  1.17575581e-05
  1.97088443e-05  2.88038024e-05  3.35260583e-05  2.52925140e-05  7.69856904e-06
 -4.34407000e-08  9.21234393e-07  7.82483099e-06  1.09544850e-05  4.74487811e-05
  2.75232150e-05 -6.38562159e-05 -3.04552396e-04  1.67194897e-04  1.32285011e-04
  6.32368998e-05 -1.48598981e-04 -1.17571877e-04 -5.62035028e-05  7.85870270e-06
  6.21782480e-06  2.97233950e-06  1.18165553e-04 -3.95426955e-05  9.75670573e-05
 -1.21013630e-04  1.35873625e-05  1.07426267e-04  2.92165304e-04  7.83476438e-05
  6.54729707e-05 -1.09137764e-05 -2.02643543e-05 -3.39685335e-05 -4.96438509e-05
 -5.77827405e-05 -4.35920847e-05 -1.32686167e-05 -1.28125302e-08  2.71711632e-07
  2.30787910e-06  3.23094863e-06  1.39946857e-05  8.11777951e-06 -1.88339437e-05
  7.51820805e-04 -3.15852145e-04 -2.49902990e-04 -1.19462441e-04  3.65335060e-04
  2.89053993e-04  1.38178001e-04 -8.24188700e-04 -6.52100115e-04 -3.11726848e-04
 -2.22214702e-04 -4.02022097e-05 -2.90250172e-04 -1.46256335e-04  1.69226181e-04
 -2.29698459e-05  4.62589749e-07  2.66483233e-04  7.75195458e-05  5.69752253e-01
  1.05861433e+00  1.77643863e+00  2.60109387e+00  3.02923655e+00  2.23138236e+00
  6.51540502e-01 -5.71097012e-06 -2.71373569e-04 -2.34149195e-03 -3.42374976e-03
 -1.41861892e-02 -5.95093736e-03  1.79451275e-02 -4.30390249e-03  1.08191065e-03
  8.56317253e-04  3.72799093e-04 -1.30428426e-03 -1.03232287e-03 -4.49423421e-04
  5.52503532e-03  4.37298871e-03  1.90378766e-03 -2.07719924e-04  2.84408756e-04
 -1.16905781e-03 -5.12479734e-06  4.43015111e-04 -4.37890314e-04  1.74099823e-04
 -1.34877672e-04  4.34375734e-04 -8.65592892e-06 -1.60720547e-05 -2.69411064e-05
 -3.93735063e-05 -4.58286184e-05 -3.45737326e-05 -1.05235987e-05 -1.32768227e-08
  2.81557749e-07  2.39151058e-06  3.34802973e-06  1.45018164e-05  8.41194655e-06
 -1.95164364e-05  7.26172355e-04  5.57247647e-05  4.40895701e-05  2.10763691e-05
  4.07744974e-04  3.22608821e-04  1.54218392e-04 -8.59973545e-04 -6.80413172e-04
 -3.25261488e-04  1.10564808e-04 -3.27868218e-05 -4.30115817e-04 -1.87877357e-04
  1.20603955e-04  6.72734023e-05  1.91740708e-04 -5.67153165e-05  9.26414480e-05
  1.94297028e-05  3.60764569e-05  6.04738899e-05  8.83805234e-05  1.02870119e-04
  7.76066158e-05  2.36220049e-05  5.25555092e-08 -1.11452952e-06 -9.46665172e-06
 -1.32529756e-05 -5.74045735e-05 -3.32981877e-05  7.72546471e-05 -4.02189902e-04
 -2.75501023e-04 -2.17977083e-04 -1.04200732e-04 -1.64665816e-04 -1.30283996e-04
 -6.22803441e-05  7.74409497e-05  6.12714688e-05  2.92899226e-05 -2.55696601e-05
  9.13748268e-05  2.21833088e-04 -8.98470294e-05  3.79202044e-05  5.19268250e-05
 -9.71634935e-05  1.41796571e-04  7.73342277e-05  4.58579352e-06  8.51475617e-06
  1.42730321e-05  2.08595486e-05  2.42793793e-05  1.83166937e-05  5.57525958e-06
  3.32200752e-08 -7.04488552e-07 -5.98382332e-06 -8.37713976e-06 -3.62851445e-05
 -2.10476183e-05  4.88322770e-05  1.09524351e-04  4.39548777e-05  3.47772067e-05
  1.66247311e-05  1.16502091e-04  9.21767391e-05  4.40637315e-05  6.50520999e-05
  5.14693806e-05  2.46041787e-05  1.30317842e-05 -8.79913540e-07 -1.29939047e-05
 -5.10171314e-05 -9.09616328e-06  6.01132947e-05 -3.08084775e-05  1.39156700e-05
 -3.02486167e-05 -5.63649225e-06 -1.04611250e-05 -1.75468446e-05 -2.56963484e-05
 -2.99118836e-05 -2.23233834e-05 -6.66372056e-06 -8.29296167e-09  1.18977552e-06
  1.01438801e-05  1.44022217e-05  6.12900745e-05  2.99080566e-05 -7.93323224e-05
  2.08952610e-04 -5.02563986e-05 -4.00918373e-05 -1.86190078e-05 -6.29549527e-05
 -5.02220571e-05 -2.33235725e-05 -5.54750905e-05 -4.42550275e-05 -2.05524306e-05
 -1.38341441e-06  9.21890660e-05  1.27792548e-04 -2.16052684e-05  1.92356020e-05
  2.36966639e-06 -4.84020029e-05  6.87894205e-05  7.25326256e-05 -7.20422350e-05
 -1.22200993e-04 -1.39085938e-04  2.90600337e-05  3.23034946e-04 -4.87047460e-05
  2.09898066e-04 -6.76172698e-05 -1.14695186e-04 -1.30543026e-04  3.30596274e-05
 -1.98567936e-04 -2.03778527e-06  3.53031842e-04 -1.16850938e-05 -1.98207353e-05
 -2.25594366e-05  8.58107983e-06  2.26259868e-05 -3.78922781e-05 -1.00130124e-04
  5.39531123e-06  9.15174817e-06  1.04162777e-05 -8.43396688e-08  6.73539672e-06
  1.88774926e-05 -1.95947034e-05 -5.80621646e-06 -9.84874247e-06 -1.12095781e-05
 -5.52913383e-05 -6.21468913e-05  4.64912061e-05 -3.40023572e-05 -1.29633979e-05
 -2.19890471e-05 -2.50273517e-05  8.70357491e-05 -6.80025361e-05 -4.51510160e-05
  6.52927334e-05
MO    2     MO 0.0        OCC NO =   2.00000000  ORB. ENERGY = -14.41093766
  4.62601898e-01  8.58572325e-01  1.44011617e+00  2.10896760e+00  2.45494778e+00
  1.83213940e+00  5.46909255e-01  1.78641889e-06 -2.56294137e-04 -2.18513237e-03
 -3.10243817e-03 -1.32027315e-02 -6.44260991e-03  1.70892818e-02 -6.20067420e-03
 -3.79501672e-03 -3.02745913e-03 -1.40597910e-03  6.67625146e-03  5.32595241e-03
  2.47341993e-03  5.03666250e-04  4.01797700e-04  1.86598445e-04  6.53944347e-04
 -1.14205418e-03 -9.47965725e-05 -1.27545733e-04  6.01038929e-04 -4.73493197e-04
 -1.22685327e-03 -7.89667015e-05  1.41213246e-04  1.69284245e-04  3.14321625e-04
  5.26887976e-04  7.70028770e-04  8.96271579e-04  6.76159459e-04  2.05810315e-04
  2.44134131e-07 -5.17728209e-06 -4.39750813e-05 -6.15635493e-05 -2.66659307e-04
 -1.54678819e-04  3.58868107e-04 -9.15221248e-05 -9.07126578e-04 -7.17720767e-04
 -3.43095834e-04  1.70781704e-03  1.35122902e-03  6.45935116e-04  1.26701758e-04
  1.00246740e-04  4.79214767e-05  1.32732191e-03 -2.36895633e-03 -1.59009179e-04
  2.42451489e-04 -1.07530819e-03  8.32856702e-04  2.17496238e-03  1.60947319e-04
 -2.81291574e-04 -5.86282577e-05 -1.08859092e-04 -1.82477253e-04 -2.66684269e-04
 -3.10405974e-04 -2.34174486e-04 -7.12783412e-05 -1.39072600e-07  2.94927251e-06
  2.50506919e-05  3.50700773e-05  1.51904213e-04  8.81137982e-05 -2.04431558e-04
  3.04448277e-03  7.62264904e-04  6.03105856e-04  2.88305865e-04 -1.29000074e-03
 -1.02065174e-03 -4.87907519e-04 -1.32788509e-04 -1.05062593e-04 -5.02236240e-05
  2.22296775e-04 -1.00428761e-03 -1.76086500e-04 -1.42008503e-05  3.00804412e-04
 -2.86603562e-04 -5.66313026e-04  7.39588027e-05  8.88685443e-05  1.11380950e-05
  2.06948668e-05  3.47276244e-05  5.08488215e-05  5.92185890e-05  4.36213259e-05
  1.27369747e-05 -3.23592876e-08 -1.53764688e-06 -1.32672751e-05 -1.93995242e-05
 -8.03812601e-05 -3.37189811e-05  1.01680018e-04 -3.21788178e-04 -8.55728945e-07
 -6.77297572e-07 -2.94862587e-07  7.72512793e-05  6.11433144e-05  2.66188402e-05
 -1.05269250e-04 -8.33191492e-05 -3.62731255e-05 -1.39986704e-04  5.17587805e-05
 -9.54069585e-05 -1.10392669e-05  1.24306386e-04 -1.13267119e-04 -1.85373818e-06
 -1.47790854e-04  4.10424700e-05  5.14424391e-06  9.55166916e-06  1.60111785e-05
  2.33997901e-05  2.72360822e-05  2.05472705e-05  6.25420551e-06 -1.02043853e-08
  2.16401455e-07  1.83808250e-06  2.57325010e-06  1.11458988e-05  6.46530766e-06
 -1.50000675e-05 -4.70094605e-04 -3.07944852e-04 -2.43646720e-04 -1.16471723e-04
  1.75341848e-05  1.38730899e-05  6.63182613e-06 -1.56371083e-05 -1.23721183e-05
 -5.91430881e-06  7.74880244e-05  2.42888503e-04 -1.16217263e-06 -7.90140025e-05
 -5.25492283e-06  8.42689253e-05 -1.26260795e-04  2.33225181e-06 -5.23482553e-05
 -1.90907336e-05 -3.54470694e-05 -5.94188665e-05 -8.68386427e-05 -1.01075454e-04
 -7.62526960e-05 -2.32098970e-05 -9.97930716e-08  2.11628288e-06  1.79753991e-05
  2.51649192e-05  1.09000537e-04  6.32270236e-05 -1.46692110e-04  5.10036086e-04
  1.13120372e-04  8.95011149e-05  4.27846888e-05  6.51742044e-05  5.15659899e-05
  2.46503614e-05  1.01658313e-05  8.04323063e-06  3.84494785e-06  6.91409143e-05
  9.80307174e-05 -9.68993486e-05 -1.64895895e-05  3.58233398e-05 -1.93337503e-05
  6.96922663e-05 -5.25921185e-06 -1.87360794e-05  2.30199493e-06  4.27427127e-06
  7.16483361e-06  1.04711595e-05  1.21878597e-05  9.19468699e-06  2.79869105e-06
 -2.01846526e-09  4.28050105e-08  3.63579535e-07  5.08998413e-07  2.20470011e-06
  1.27886183e-06 -2.96706898e-06 -1.46283942e-04 -9.01917546e-05 -7.13599369e-05
 -3.41125660e-05  3.30474229e-05  2.61472018e-05  1.24992844e-05 -1.92302577e-05
 -1.52150269e-05 -7.27331936e-06 -2.52072969e-05 -5.27310686e-06 -1.75308810e-05
 -9.86047698e-06 -9.04769179e-06  1.89081688e-05 -1.36420385e-05  1.23010460e-05
 -1.53293326e-05 -3.10382020e-05 -5.76057760e-05 -9.66243691e-05 -1.41500851e-04
 -1.64714338e-04 -1.22927107e-04 -3.66947910e-05 -1.21743271e-09  1.74662768e-07
  1.48915333e-06  2.11429120e-06  8.99757467e-06  4.39059626e-06 -1.16462331e-05
  4.81150936e-06  1.81321646e-04  1.44648604e-04  6.71761057e-05 -8.04241105e-05
 -6.41580066e-05 -2.97955521e-05  2.92220917e-05  2.33118047e-05  1.08262106e-05
 -7.54798312e-05 -9.77499162e-06 -4.00432865e-05  2.00384498e-05 -7.78912544e-07
 -1.92595372e-05 -5.88861715e-05  2.74717810e-06 -3.62529129e-05 -2.94008996e-05
 -4.98710117e-05 -5.67618662e-05  1.46696907e-04  8.85163449e-05  2.25495266e-05
  3.12476992e-05  4.67448185e-06  7.92904780e-06  9.02463245e-06  8.95015442e-07
  5.77847000e-05 -6.32828383e-05 -1.85860956e-06 -6.36089718e-06 -1.07896147e-05
 -1.22804540e-05  2.72110148e-05  5.89608484e-06 -3.66924217e-06  9.60072937e-06
  1.31734521e-05  2.23453497e-05  2.54328859e-05  1.28512345e-05  3.64052203e-05
  1.34609255e-05  1.10406699e-05  5.62336113e-06  9.53857576e-06  1.08565546e-05
  8.00687438e-06  5.98438425e-06  8.20502245e-07  1.03923697e-06  2.51145431e-05
  4.26003179e-05  4.84865549e-05 -6.64050700e-05  2.95213864e-05  1.56539222e-05
 -3.37259703e-05
MO    3     MO 0.0        OCC NO =   2.00000000  ORB. ENERGY = -14.40106511
  2.74249030e-05  5.08996241e-05  8.53758844e-05  1.25028090e-04  1.45539188e-04
  1.08616600e-04  3.24229825e-05 -2.51477166e-09  3.60789533e-07  3.07604729e-06
  4.36735397e-06  1.85857054e-05  9.06936945e-06 -2.40568671e-05  7.63569263e-05
 -9.42881597e-06 -7.52179954e-06 -3.49319098e-06 -5.09007940e-06 -4.06059011e-06
 -1.88577437e-06  1.80064211e-06  1.43645491e-06  6.67102508e-07 -8.99401218e-06
  5.42754125e-06  9.68957659e-06 -6.71636527e-06 -4.45506076e-06  1.11714260e-05
  1.56882344e-05 -3.03617129e-05  2.69433043e-05 -2.74041006e-07 -5.08830660e-07
 -8.52937677e-07 -1.24653927e-06 -1.45090386e-06 -1.09458159e-06 -3.33170200e-07
 -9.60516748e-09  2.03694016e-07  1.73014735e-06  2.42214474e-06  1.04913938e-05
  6.08565446e-06 -1.41192395e-05  5.70497063e-05  2.45103859e-05  1.93926773e-05
  9.27038353e-06 -2.95729314e-05 -2.33981756e-05 -1.11851530e-05  3.38478055e-05
  2.67804665e-05  1.28020073e-05 -6.28362276e-06  7.97192989e-05  2.30241281e-07
 -2.13771825e-05  1.49707575e-05  6.40642496e-06  6.10621397e-06  6.44252880e-06
  5.78443671e-05  1.73117530e-07  3.21439147e-07  5.38818867e-07  7.87465360e-07
  9.16566820e-07  6.91470466e-07  2.10470699e-07 -9.36154882e-09  1.98527665e-07
  1.68626512e-06  2.36071118e-06  1.02252975e-05  5.93130223e-06 -1.37611291e-05
  1.19790989e-04 -1.55216546e-05 -1.22807711e-05 -5.87064162e-06 -1.08916268e-05
 -8.61748177e-06 -4.11946014e-06  1.03265218e-04  8.17036934e-05  3.90572463e-05
 -1.34805117e-04  6.78444738e-05 -6.34661612e-06 -1.29633301e-05 -1.67400509e-05
  2.97033810e-05 -8.92792329e-05 -8.44092255e-05  4.20825853e-05 -6.71011045e-07
 -1.24675577e-06 -2.09215485e-06 -3.06337132e-06 -3.56760534e-06 -2.62795311e-06
 -7.67335048e-07  1.65299851e-08  7.85470937e-07  6.77727710e-06  9.90979313e-06
  4.10608863e-05  1.72245527e-05 -5.19408584e-05  7.45634208e-05  8.79756594e-05
  6.96315123e-05  3.03141908e-05  6.45029036e-05  5.10531521e-05  2.22260718e-05
 -1.96458566e-04 -1.55494226e-04 -6.76946612e-05 -3.52096258e-05  1.44889924e-05
  5.33937723e-05  6.42020178e-06  2.16899726e-05 -2.81101744e-05 -1.00678057e-04
  2.03753481e-05  3.57119390e-05  3.95108664e-06  7.33625252e-06  1.22975416e-05
  1.79724367e-05  2.09189382e-05  1.57815312e-05  4.80360346e-06 -4.16662355e-08
  8.83603838e-07  7.50520252e-06  1.05070165e-05  4.55105947e-05  2.63989475e-05
 -6.12478191e-05 -2.54910845e-04  2.28020930e-04  1.80410718e-04  8.62426844e-05
  3.12370390e-04  2.47148217e-04  1.18145562e-04  9.66063563e-05  7.64351854e-05
  3.65387138e-05 -1.83559551e-04 -2.02976686e-05  1.38419076e-04 -2.81745876e-05
 -6.18625230e-05  9.00371106e-05 -5.80045343e-05 -2.82755541e-04 -7.41167130e-05
  2.85350914e-05  5.29830540e-05  8.88139151e-05  1.29798502e-04  1.51078391e-04
  1.13975592e-04  3.46920421e-05  6.91797964e-08 -1.46707599e-06 -1.24611301e-05
 -1.74451388e-05 -7.55627100e-05 -4.38310250e-05  1.01691732e-04  7.52991411e-04
 -8.01290390e-06 -6.33982917e-06 -3.03066189e-06 -5.10450340e-04 -4.03869558e-04
 -1.93063889e-04 -1.01393073e-04 -8.02224476e-05 -3.83491586e-05  8.11460685e-05
 -3.68543506e-04 -3.32411938e-04 -3.82355224e-06 -1.27384277e-04  1.31207829e-04
  7.77357309e-05 -3.79262087e-04 -5.44864218e-04  2.88642340e-05  5.35941955e-05
  8.98383534e-05  1.31295683e-04  1.52821029e-04  1.15290261e-04  3.50922030e-05
  1.04247951e-07 -2.21075623e-06 -1.87778420e-05 -2.62883106e-05 -1.13866448e-04
 -6.60495520e-05  1.53240617e-04  7.31820265e-04  2.45668179e-04  1.94373264e-04
  9.29172739e-05 -4.42728217e-04 -3.50287649e-04 -1.67449847e-04 -2.24846293e-04
 -1.77898937e-04 -8.50419648e-05  1.75003634e-04 -2.04108672e-04 -4.57457777e-05
 -1.08866963e-04 -5.84877820e-05  1.67354745e-04  4.88543033e-04 -4.49925566e-04
 -3.30641764e-04  4.62487774e-01  8.58360516e-01  1.43976089e+00  2.10844732e+00
  2.45434215e+00  1.83168741e+00  5.46774333e-01  1.66650465e-06 -2.39090269e-04
 -2.03845430e-03 -2.89418551e-03 -1.23164918e-02 -6.01014661e-03  1.59421555e-02
 -3.87084860e-03  3.68712191e-04  2.94138648e-04  1.36600619e-04  5.55374462e-03
  4.43047715e-03  2.05755322e-03 -1.46493928e-03 -1.16864935e-03 -5.42731208e-04
  3.42180770e-04 -1.03576659e-03 -3.54176119e-04  8.21020843e-05 -5.10054092e-04
  4.27952008e-04  2.60318667e-04 -1.22741445e-03 -3.87624420e-04  1.04361070e-05
  1.77021527e-05  2.01481219e-05  8.29059975e-06  3.09739506e-05 -7.59420241e-05
 -4.64365159e-06 -5.24760599e-06 -8.90120448e-06 -1.01311155e-05  3.78057979e-05
  8.47346990e-05 -1.42608884e-05 -1.10802476e-04 -9.22871403e-05 -1.56541232e-04
 -1.78171089e-04  3.93010987e-05 -2.30256221e-06  2.14915685e-04  3.01024223e-04
 -1.24473261e-04 -2.11136650e-04 -2.40310149e-04 -1.27479545e-05 -3.24581179e-04
  8.78112914e-05 -3.20707867e-05 -1.05854718e-04 -1.79555114e-04 -2.04364881e-04
 -1.92942571e-05 -3.16405941e-04  2.08287504e-04 -5.75565567e-05 -8.48608770e-05
 -1.43944500e-04 -1.63833822e-04  8.85295762e-05  8.63100077e-04  7.42477237e-04
 -1.21165264e-03
MO    4     MO 0.0        OCC NO =   2.00000000  ORB. ENERGY = -10.34745386
  3.04412489e-05  5.64978526e-05  9.47660070e-05  1.38779387e-04  1.61546411e-04
  1.20562868e-04  3.59890455e-05  3.51036605e-08 -5.03625576e-06 -4.29384987e-05
 -6.09638295e-05 -2.59437588e-04 -1.26599194e-04  3.35809452e-04  4.99489449e-04
 -8.91279914e-04 -7.11014922e-04 -3.30201689e-04  8.59213206e-04  6.85433835e-04
  3.18321604e-04 -2.70755481e-05 -2.15994082e-05 -1.00309584e-05  1.45184334e-04
 -8.77226542e-06  3.49161341e-05  5.36810452e-05 -1.54692332e-06 -5.21341219e-05
 -8.19153957e-05 -1.22318400e-06  9.21814047e-06  8.92715423e-04  1.65756572e-03
  2.77852804e-03  4.06072378e-03  4.72646147e-03  3.56570677e-03  1.08533456e-03
 -3.92955675e-07  8.33329764e-06  7.07818184e-05  9.90920275e-05  4.29211956e-04
  2.48969366e-04 -5.77630250e-04  1.56164884e-03  2.15506750e-04  1.70509468e-04
  8.15095380e-05 -6.14494010e-04 -4.86189164e-04 -2.32415564e-04 -5.99072716e-05
 -4.73987798e-05 -2.26582881e-05 -6.59339952e-04  6.94512463e-04 -6.84418592e-06
  2.31720974e-04 -7.78223452e-04  5.46502478e-04  8.27504190e-04  9.03844874e-05
 -2.89610075e-04  3.63512811e-01  6.74959073e-01  1.13141379e+00  1.65352258e+00
  1.92461029e+00  1.45195216e+00  4.41947129e-01  9.94697607e-06 -2.10942652e-04
 -1.79171622e-03 -2.50833895e-03 -1.08647395e-02 -6.30221799e-03  1.46216855e-02
 -5.09629167e-03 -7.91996096e-04 -6.26629248e-04 -2.99550876e-04 -3.11921664e-04
 -2.46793183e-04 -1.17975844e-04 -7.72733847e-04 -6.11388910e-04 -2.92265457e-04
  7.10282752e-04  8.70171838e-04  2.06859258e-04  2.14412189e-04  1.51517178e-04
 -3.65929368e-04  2.75822878e-04  4.05165303e-04  2.76160826e-04  2.09037620e-05
  3.88397270e-05  6.51761358e-05  9.54320878e-05  1.11140306e-04  8.18676634e-05
  2.39045085e-05 -8.04516709e-08 -3.82289814e-06 -3.29851034e-05 -4.82311032e-05
 -1.99843914e-04 -8.38321413e-05  2.52796891e-04  2.81278460e-04 -9.45573354e-04
 -7.48408174e-04 -3.25820701e-04  1.19236757e-04  9.43742368e-05  4.10859757e-05
  4.37146542e-04  3.45995415e-04  1.50629660e-04  4.58935564e-04 -9.94873589e-05
 -4.71080936e-04 -2.08762801e-04  9.51373615e-04 -7.42610814e-04  4.08414387e-04
 -1.92380108e-03  9.24346532e-04  2.86521848e-03  5.32004693e-03  8.91783618e-03
  1.30331128e-02  1.51698340e-02  1.14443289e-02  3.48344004e-03 -1.98890844e-07
  4.21782075e-06  3.58255561e-05  5.01545040e-05  2.17241622e-04  1.26013518e-04
 -2.92362155e-04  1.79973609e-03 -3.81212714e-04 -3.01616432e-04 -1.44183290e-04
  3.59913974e-04  2.84764817e-04  1.36127623e-04 -1.78579115e-04 -1.41292233e-04
 -6.75426692e-05  5.51447957e-04 -2.51704339e-04 -2.02560164e-04 -7.20809702e-04
  4.46477894e-04  2.74331808e-04 -1.63267971e-05  4.04461645e-04 -9.99918050e-06
 -9.00330352e-05 -1.67170488e-04 -2.80222909e-04 -4.09536205e-04 -4.76677854e-04
 -3.59612251e-04 -1.09459255e-04 -2.13529486e-07  4.52825821e-06  3.84623668e-05
  5.38459451e-05  2.33230906e-04  1.35288288e-04 -3.13880415e-04  1.83077648e-05
 -3.98489517e-04 -3.15285881e-04 -1.50717768e-04 -1.81115520e-04 -1.43299042e-04
 -6.85019951e-05  1.15901634e-04  9.17016562e-05  4.38366251e-05 -1.03568400e-05
  5.31593873e-05 -1.09165303e-04 -6.97376521e-05  1.86198210e-04 -1.16460558e-04
 -1.74032023e-04 -4.04680578e-05  8.85220419e-05  1.35234547e-05  2.51099224e-05
  4.20910150e-05  6.15145799e-05  7.15996230e-05  5.40157286e-05  1.64413793e-05
  4.36489992e-08 -9.25651735e-07 -7.86235124e-06 -1.10070120e-05 -4.76762992e-05
 -2.76551895e-05  6.41624080e-05 -1.41055271e-04  8.00085644e-05  6.33029719e-05
  3.02610527e-05  1.63767970e-05  1.29573618e-05  6.19407583e-06 -3.12420876e-05
 -2.47188161e-05 -1.18164657e-05 -9.32389371e-05 -1.24040603e-05  4.65456573e-05
 -2.53105783e-05 -3.05535117e-05  5.58640900e-05 -3.63524231e-05  7.36205888e-05
  2.16610642e-05  3.47038121e-06  6.44090151e-06  1.08035702e-05  1.58212095e-05
  1.84167092e-05  1.37444792e-05  4.10284439e-06  6.32969273e-10 -9.08109040e-08
 -7.74242625e-07 -1.09926516e-06 -4.67803126e-06 -2.28276478e-06  6.05512535e-06
 -3.92659347e-05 -2.06037940e-05 -1.64365928e-05 -7.63330069e-06 -1.13477142e-04
 -9.05259277e-05 -4.20410505e-05 -5.14740852e-05 -4.10632418e-05 -1.90701368e-05
 -8.68160632e-05 -3.11163506e-07  2.56206391e-06 -8.94176435e-06  2.57519453e-05
 -1.68101810e-05 -1.74994907e-04  1.27409468e-05 -6.33933067e-05 -2.79535529e-04
 -4.74159627e-04 -5.39675944e-04  1.54461241e-05  7.85315236e-04  1.20859361e-03
  3.67881636e-04 -1.03903964e-04 -1.76246165e-04 -2.00598722e-04  9.87206724e-05
 -2.85280385e-04  7.99628915e-05  5.30866320e-05  3.68545506e-05  6.25142001e-05
  7.11520088e-05  6.62210828e-05 -5.59566553e-05 -8.40068304e-06 -1.08305388e-04
 -1.95697376e-06 -3.31949915e-06 -3.77816612e-06 -4.57467446e-05  2.88934836e-05
 -1.97280388e-05 -2.29627199e-05  1.62291576e-05  2.75285626e-05  3.13322817e-05
  2.81598602e-05  4.20649201e-05  6.01120598e-07 -5.99636790e-06  1.98565846e-06
  3.36815532e-06  3.83354528e-06  5.76958812e-05 -1.88342840e-05  1.90264641e-05
  6.38339175e-05
MO    5     MO 0.0        OCC NO =   2.00000000  ORB. ENERGY = -10.33017563
 -1.53622114e-05 -2.85117066e-05 -4.78237748e-05 -7.00351777e-05 -8.15245829e-05
 -6.08421905e-05 -1.81619134e-05 -1.92058204e-08  2.75542272e-06  2.34923960e-05
  3.33543666e-05  1.41942796e-04  6.92646110e-05 -1.83727165e-04  4.19846735e-04
  3.86081122e-05  3.07994643e-05  1.43035467e-05  1.02224031e-04  8.15488041e-05
  3.78719940e-05 -1.69618472e-05 -1.35312445e-05 -6.28403099e-06 -5.12794909e-05
  7.71650664e-05 -3.70132950e-07 -1.01867934e-04  7.38201815e-05  2.80477527e-05
  1.52994589e-05  4.64463744e-05 -2.45637350e-05 -1.38805031e-04 -2.57728785e-04
 -4.32023084e-04 -6.31386973e-04 -7.34900073e-04 -5.54418602e-04 -1.68754671e-04
 -2.49125671e-07  5.28313624e-06  4.48741910e-05  6.28222709e-05  2.72111394e-04
  1.57841366e-04 -3.66205486e-04 -1.23607930e-04  3.38623313e-04  2.67919593e-04
  1.28075013e-04 -2.43963278e-04 -1.93024342e-04 -9.22724416e-05 -2.16562948e-05
 -1.71345134e-05 -8.19090157e-06 -4.11858095e-05  2.29946316e-04  1.98007770e-05
 -2.33241008e-05  1.56710995e-04 -1.33386894e-04  2.61348684e-04 -1.62168252e-05
 -4.88887219e-05 -2.89669565e-03 -5.37849274e-03 -9.01580717e-03 -1.31762941e-02